 Gaussian 09, Revision C.01,

 -----------------------------------------------------
 #p opt b3lyp/6-31g(d,p) nosymm pop=(npa,mk,hirshfeld)
 -----------------------------------------------------

 (Enter /apps/gaussian/g09_C01.binary_dist/em64t/g09/l101.exe)
 -------------------
 Title Card Required
 -------------------
 Charge =  0 Multiplicity = 1

 SCF Done:  E(RB3LYP) =  -378.855931030     A.U. after   16 cycles
 SCF Done:  E(RB3LYP) =  -378.869187702     A.U. after   13 cycles
 SCF Done:  E(RB3LYP) =  -378.869598224     A.U. after   12 cycles
 SCF Done:  E(RB3LYP) =  -378.869662604     A.U. after   10 cycles
 SCF Done:  E(RB3LYP) =  -378.869670089     A.U. after    9 cycles
 Optimization completed.
    -- Stationary point found.

 1\1\GINC-LC3N68\FOpt\RB3LYP\6-31G(d,p)\C5H6N2O1\TOMASI\06-Aug-2014\0\\
 #p opt b3lyp/6-31g(d,p) nosymm pop=(npa,mk,hirshfeld)\\Title Card Requ
 ired\\0,1\C,-3.1040031842,1.7706159174,0.0006368112\C,-0.3123873311,1.
 8032419919,0.0000696091\O,0.9142549983,1.8382971071,-0.0002370558\C,-2
 .4387052203,2.9616279279,0.0007692304\H,-2.947741428,3.9192550294,0.00
 10997148\N,-1.0725883491,2.9918233317,0.0004937943\C,-0.3200204586,4.2
 450373294,0.0006255018\H,0.322741395,4.28913866,0.8827383168\H,0.32229
 23526,4.2896033466,-0.8817920424\H,-1.017706279,5.0828493567,0.0010207

 Normal termination of Gaussian 09 at Wed Aug  6 09:15:13 2014.

 ----------------------------------------------------------------------
 #p ub3lyp/6-31g(d,p) nosymm pop=(npa,mk,hirshfeld) SP scf=tight geom=c
 heckpoint
 ----------------------------------------------------------------------

 -------------------
 Title Card Required
 -------------------
 Structure from the checkpoint file:  N-Me-2-piridazone.chk
 Charge = -1 Multiplicity = 2

 SCF Done:  E(UB3LYP) =  -378.846656212     A.U. after   20 cycles
 Normal termination of Gaussian 09 at Wed Aug  6 09:15:41 2014.
 Gaussian 09:  EM64L-G09RevC.01 23-Sep-2011

 ----------------------------------------------------------------------
 #p ub3lyp/6-31g(d,p) nosymm pop=(npa,mk,hirshfeld) SP scf=tight geom=c
 heckpoint
 ----------------------------------------------------------------------

 -------------------
 Title Card Required
 -------------------
 Structure from the checkpoint file:  N-Me-2-piridazone.chk
 Charge =  1 Multiplicity = 2

                          Input orientation:
 ---------------------------------------------------------------------
 Center     Atomic      Atomic             Coordinates (Angstroms)
 Number     Number       Type             X           Y           Z
 ---------------------------------------------------------------------
      1          6           0       -3.104003    1.770616    0.000637
      2          6           0       -0.312387    1.803242    0.000070
      3          8           0        0.914255    1.838297   -0.000237
      4          6           0       -2.438705    2.961628    0.000769
      5          1           0       -2.947741    3.919255    0.001100
      6          7           0       -1.072588    2.991823    0.000494
      7          6           0       -0.320020    4.245037    0.000626
      8          1           0        0.322741    4.289139    0.882738
      9          1           0        0.322292    4.289603   -0.881792
     10          1           0       -1.017706    5.082849    0.001021
     11          1           0       -4.187618    1.742003    0.000858
     12          7           0       -2.441414    0.571915    0.000216
     13          6           0       -1.138338    0.595324   -0.000058
     14          1           0       -0.594312   -0.347032   -0.000415
 ---------------------------------------------------------------------

 SCF Done:  E(UB3LYP) =  -378.561711574     A.U. after   21 cycles

 Alpha  occ. eigenvalues --  -19.38602 -14.66277 -14.57050 -10.52412 -10.49263
 Alpha  occ. eigenvalues --  -10.47624 -10.46988 -10.42327  -1.29564  -1.22312
 Alpha  occ. eigenvalues --   -1.16160  -1.01388  -0.95712  -0.89483  -0.86219
 Alpha  occ. eigenvalues --   -0.77287  -0.74983  -0.70984  -0.70502  -0.66937
 Alpha  occ. eigenvalues --   -0.65872  -0.63292  -0.62323  -0.60628  -0.60184
 Alpha  occ. eigenvalues --   -0.55017  -0.52738  -0.47802  -0.46902
 Alpha virt. eigenvalues --   -0.28601  -0.23516  -0.10570  -0.10521  -0.06313
 Alpha virt. eigenvalues --   -0.05997  -0.04302  -0.02618  -0.01151  -0.00699
 Alpha virt. eigenvalues --    0.01546   0.03835   0.08115   0.10696   0.12944

  Beta  occ. eigenvalues --  -19.37625 -14.65843 -14.57283 -10.52623 -10.49210
  Beta  occ. eigenvalues --  -10.47100 -10.46562 -10.42340  -1.28152  -1.21168
  Beta  occ. eigenvalues --   -1.15822  -1.00228  -0.95468  -0.88952  -0.85630
  Beta  occ. eigenvalues --   -0.77010  -0.74606  -0.70138  -0.69260  -0.66469
  Beta  occ. eigenvalues --   -0.65107  -0.63057  -0.61132  -0.60052  -0.57118
  Beta  occ. eigenvalues --   -0.53713  -0.52047  -0.46712
  Beta virt. eigenvalues --   -0.38872  -0.26679  -0.20868  -0.10466  -0.08792
  Beta virt. eigenvalues --   -0.06116  -0.05722  -0.04028  -0.02280  -0.00958
  Beta virt. eigenvalues --   -0.00535   0.01829   0.04158   0.08305   0.11038

 Mulliken atomic charges:
              1
     1  C    0.118568
     2  C    0.604303
     3  O   -0.343581
     4  C    0.194306
     5  H    0.221222
     6  N   -0.425246
     7  C   -0.215280
     8  H    0.215767
     9  H    0.215769
    10  H    0.175544
    11  H    0.220418
    12  N   -0.342786
    13  C    0.139436
    14  H    0.221559
 Sum of Mulliken atomic charges =   1.00000

 Dipole moment (field-independent basis, Debye):
    X=             -8.4295    Y=             13.7295    Z=              0.0029  Tot=             16.1107
 Quadrupole moment (field-independent basis, Debye-Ang):
   XX=            -21.6984   YY=              6.7510   ZZ=            -42.5756
   XY=            -23.5842   XZ=             -0.0062   YZ=              0.0106

 Summary of Natural Population Analysis:

                                       Natural Population
                Natural  -----------------------------------------------
    Atom  No    Charge         Core      Valence    Rydberg      Total
 -----------------------------------------------------------------------
      C    1    0.20848      0.99958     1.78178    0.01016     2.79152
      C    2    0.23041      0.99965     1.75197    0.01797     2.76959
      O    3    0.00407      0.99991     2.98740    0.00862     3.99593
      C    4    0.05881      0.99957     1.93335    0.00826     2.94119
      H    5    0.14441      0.00000     0.35489    0.00070     0.35559
      N    6   -0.05483      0.99966     2.54977    0.00539     3.55483
      C    7   -0.25272      0.99972     2.24602    0.00698     3.25272
      H    8    0.15267      0.00000     0.34676    0.00057     0.34733
      H    9    0.15267      0.00000     0.34676    0.00057     0.34733
      H   10    0.13404      0.00000     0.36547    0.00049     0.36596
      H   11    0.13985      0.00000     0.35948    0.00067     0.36015
      N   12   -0.24231      0.99974     2.73071    0.01186     3.74231
      C   13    0.18596      0.99961     1.80350    0.01092     2.81404
      H   14    0.13848      0.00000     0.36060    0.00092     0.36152
 =======================================================================
   * Total *    1.00000      7.99744    19.91846    0.08409    28.00000

 Normal termination of Gaussian 09 at Wed Aug  6 09:16:10 2014.
