 Gaussian 09, Revision C.01,

 -----------------------------------------------------------
 #p opt b3lyp/6-31+G(d) nosymm pop=(Chelpg,MK,NPA,hirshfeld)
 -----------------------------------------------------------

 ----------------------------------------------------------------------
 3-Fluoro-4-Aminopyridine: Parent Compound Optimisation [B3LYP/6-31+G(d
 )]
 ----------------------------------------------------------------------
 Charge =  0 Multiplicity = 1

 SCF Done:  E(RB3LYP) =  -402.896704347     A.U. after   13 cycles
 SCF Done:  E(RB3LYP) =  -402.896831638     A.U. after   11 cycles
 SCF Done:  E(RB3LYP) =  -402.896847705     A.U. after   10 cycles
 SCF Done:  E(RB3LYP) =  -402.896851214     A.U. after   10 cycles
 SCF Done:  E(RB3LYP) =  -402.896852499     A.U. after    9 cycles
 SCF Done:  E(RB3LYP) =  -402.896852952     A.U. after    9 cycles
 Optimization completed.
    -- Stationary point found.
 Normal termination of Gaussian 09 at Thu Jul 31 10:20:19 2014.

 ----------------------------------------------------------------------
 #p rob3lyp/6-31+G(d) scf=tight nosymm guess=read geom=checkpoint pop=(
 npa,chelpg,mk,hirshfeld)
 ----------------------------------------------------------------------

 -----------------------------------------------------
 3-Fluoro-4-Aminopyridine: Radical Anion Single Point.
 -----------------------------------------------------
 Structure from the checkpoint file:  Pyridine.chk
 Charge = -1 Multiplicity = 2

 SCF Done:  E(ROB3LYP) =  -402.866176887     A.U. after   34 cycles
 Normal termination of Gaussian 09 at Thu Jul 31 10:21:14 2014.
 Gaussian 09:  EM64L-G09RevC.01 23-Sep-2011

 ----------------------------------------------------------------------
 #p rob3lyp/6-31+G(d) scf=tight nosymm guess=read geom=checkpoint pop=(
 npa,chelpg,mk,hirshfeld)
 ----------------------------------------------------------------------

 ------------------------------------------------------
 3-Fluoro-4-Aminopyridine: Radical Cation Single Point.
 ------------------------------------------------------
 Structure from the checkpoint file:  Pyridine.chk
 Charge =  1 Multiplicity = 2

                          Input orientation:
 ---------------------------------------------------------------------
 Center     Atomic      Atomic             Coordinates (Angstroms)
 Number     Number       Type             X           Y           Z
 ---------------------------------------------------------------------
      1          6           0       -0.710916    0.080382   -0.052252
      2          7           0        2.127900   -0.113114    0.031129
      3          6           0        0.109933    1.221492   -0.030780
      4          6           0       -0.027651   -1.143181   -0.028477
      5          6           0        1.353429   -1.208243    0.012246
      6          6           0        1.494554    1.068639    0.010007
      7          1           0       -0.333199    2.214218   -0.052583
      8          1           0        1.844955   -2.178569    0.032415
      9          1           0        2.131965    1.950400    0.026488
     10          7           0       -2.086337    0.128129   -0.147123
     11          1           0       -2.592448   -0.713749    0.094571
     12          1           0       -2.540854    0.983645    0.142074
     13          9           0       -0.769331   -2.291049   -0.037714
 ---------------------------------------------------------------------

 SCF Done:  E(ROB3LYP) =  -402.573137369     A.U. after   27 cycles

 Alpha  occ. eigenvalues --  -24.94703 -14.63980 -14.56437 -10.52260 -10.50343
 Alpha  occ. eigenvalues --  -10.44102 -10.43758 -10.42684  -1.44458  -1.19362
 Alpha  occ. eigenvalues --   -1.16084  -1.02305  -0.98301  -0.87533  -0.85786
 Alpha  occ. eigenvalues --   -0.78905  -0.77438  -0.74771  -0.70647  -0.68902
 Alpha  occ. eigenvalues --   -0.67045  -0.65853  -0.62519  -0.61789  -0.58819
 Alpha  occ. eigenvalues --   -0.57184  -0.47324  -0.47254  -0.29702
 Alpha virt. eigenvalues --   -0.24013  -0.22508  -0.17653  -0.14233  -0.12112
 Alpha virt. eigenvalues --   -0.10260  -0.09380  -0.09019  -0.08518  -0.08172
 Alpha virt. eigenvalues --   -0.07401  -0.05483  -0.04881  -0.03942  -0.03453

 Mulliken atomic charges:
              1
     1  C   -0.082898
     2  N   -0.045893
     3  C    0.200261
     4  C    0.947405
     5  C   -0.329574
     6  C   -0.443505
     7  H    0.250087
     8  H    0.270776
     9  H    0.254176
    10  N   -0.617097
    11  H    0.456318
    12  H    0.450791
    13  F   -0.310847
 Sum of Mulliken atomic charges =   1.00000

 Dipole moment (field-independent basis, Debye):
    X=             -3.9501    Y=              1.2765    Z=              0.4947  Tot=              4.1806
 Quadrupole moment (field-independent basis, Debye-Ang):
   XX=            -27.1412   YY=            -32.4053   ZZ=            -44.5411
   XY=             -1.9068   XZ=             -1.5836   YZ=              0.0849

 Summary of Natural Population Analysis:

                                       Natural Population
                Natural  -----------------------------------------------
    Atom  No    Charge         Core      Valence    Rydberg      Total
 -----------------------------------------------------------------------
      C    1    0.14447      0.99945     1.84721    0.00887     2.85553
      N    2   -0.06438      0.99975     2.55163    0.01299     3.56438
      C    3   -0.08538      0.99954     2.07934    0.00650     3.08538
      C    4    0.32267      0.99918     1.66653    0.01162     2.67733
      C    5   -0.01697      0.99956     2.00525    0.01216     3.01697
      C    6    0.03137      0.99963     1.95663    0.01237     2.96863
      H    7    0.14321      0.00000     0.35647    0.00033     0.35679
      H    8    0.14502      0.00000     0.35460    0.00038     0.35498
      H    9    0.14024      0.00000     0.35953    0.00023     0.35976
      N   10   -0.10748      0.99971     2.60270    0.00507     3.60748
      H   11    0.23402      0.00000     0.26537    0.00062     0.26598
      H   12    0.23139      0.00000     0.26822    0.00039     0.26861
      F   13   -0.11818      0.99997     3.61384    0.00437     4.61818
 =======================================================================
   * Total *    1.00000      7.99679    19.92731    0.07590    28.00000

 Normal termination of Gaussian 09 at Thu Jul 31 10:21:58 2014.
